# vtk DataFile Version 3.0
SiWiRVisFile
ASCII
DATASET UNSTRUCTURED_GRID
POINTS 12 DOUBLE
99.8705 100.63 100 
100.13 100.63 100 
99.8705 100.37 100 
100.13 100.37 100 
99.6705 100.03 100 
99.9 100.03 100 
100.1 100.03 100 
100.33 100.03 100 
99.6705 99.7705 100 
99.9 99.7702 100 
100.1 99.7702 100 
100.33 99.7705 100 
POINT_DATA 12
SCALARS mass double
LOOKUP_TABLE default
1
1
1
1
1
1
1
1
1
1
1
1
VECTORS force double
-102222 102252 0 
102222 102252 0 
-102391 -98947.1 0 
102391 -98947.1 0 
-491009 102343 0 
-2.44015e+06 102232 0 
2.44015e+06 102232 0 
491009 102343 0 
-490796 -102698 0 
-2.44039e+06 -105181 0 
2.44039e+06 -105181 0 
490796 -102698 0 
VECTORS velocity double
-300.359 300.361 0 
300.359 300.361 0 
-300.367 -300.144 0 
300.367 -300.144 0 
-319.846 300.361 0 
-122.055 302.608 0 
122.055 302.608 0 
319.846 300.361 0 
-319.831 -300.386 0 
-122.063 -302.799 0 
122.063 -302.799 0 
319.831 -300.386 0 

