# vtk DataFile Version 3.0
SiWiRVisFile
ASCII
DATASET UNSTRUCTURED_GRID
POINTS 12 DOUBLE
99.6868 100.813 100 
100.313 100.813 100 
99.5825 100.538 100 
100.418 100.538 100 
99.4408 100.211 100 
99.871 99.866 100 
100.129 99.866 100 
100.559 100.211 100 
99.442 99.5868 100 
99.766 99.5849 100 
100.234 99.5849 100 
100.558 99.5868 100 
POINT_DATA 12
SCALARS mass double
LOOKUP_TABLE default
1
1
1
1
1
1
1
1
1
1
1
1
VECTORS force double
6702.82 17709.8 0 
-6702.82 17709.8 0 
-6046.5 -16196.6 0 
6046.5 -16196.6 0 
-661.884 -1508.44 0 
-101434 14110.5 0 
101434 14110.5 0 
661.884 -1508.44 0 
-5550.19 23.497 0 
188.694 -14138.8 0 
-188.694 -14138.8 0 
5550.19 23.497 0 
VECTORS velocity double
-305.787 307.49 0 
305.787 307.49 0 
-649.093 836.308 0 
649.093 836.308 0 
-398.536 299.858 0 
124.015 -827.507 0 
-124.015 -827.507 0 
398.536 299.858 0 
-395.922 -306.146 0 
-212.232 -310.003 0 
212.232 -310.003 0 
395.922 -306.146 0 

