# vtk DataFile Version 3.0
SiWiRVisFile
ASCII
DATASET UNSTRUCTURED_GRID
POINTS 12 DOUBLE
99.7481 100.752 100 
100.252 100.752 100 
99.7123 100.37 100 
100.288 100.37 100 
99.5204 100.151 100 
99.8449 100.032 100 
100.155 100.032 100 
100.48 100.151 100 
99.521 99.6481 100 
99.8085 99.6468 100 
100.191 99.6468 100 
100.479 99.6481 100 
POINT_DATA 12
SCALARS mass double
LOOKUP_TABLE default
1
1
1
1
1
1
1
1
1
1
1
1
VECTORS force double
39.9112 617.041 0 
-39.9112 617.041 0 
14237.6 17366.2 0 
-14237.6 17366.2 0 
-16982.7 -15984.7 0 
-6977.36 -1401.54 0 
6977.36 -1401.54 0 
16982.7 -15984.7 0 
-26161 85.8342 0 
25459.8 -682.858 0 
-25459.8 -682.858 0 
26161 85.8342 0 
VECTORS velocity double
-306.196 306.237 0 
306.196 306.237 0 
-649.779 836.017 0 
649.779 836.017 0 
-397.298 301.296 0 
132.455 -828.425 0 
-132.455 -828.425 0 
397.298 301.296 0 
-393.153 -306.156 0 
-214.617 -308.969 0 
214.617 -308.969 0 
393.153 -306.156 0 

