# vtk DataFile Version 3.0
SiWiRVisFile
ASCII
DATASET UNSTRUCTURED_GRID
POINTS 12 DOUBLE
99.6563 100.844 100 
100.344 100.844 100 
99.5176 100.621 100 
100.482 100.621 100 
99.4009 100.241 100 
99.8829 99.7833 100 
100.117 99.7833 100 
100.599 100.241 100 
99.4024 99.5562 100 
99.7447 99.5539 100 
100.255 99.5539 100 
100.598 99.5562 100 
POINT_DATA 12
SCALARS mass double
LOOKUP_TABLE default
1
1
1
1
1
1
1
1
1
1
1
1
VECTORS force double
44924.4 72189.7 0 
-44924.4 72189.7 0 
-44809.7 -71815.6 0 
44809.7 -71815.6 0 
-115.358 -373.39 0 
-341200 56420.2 0 
341200 56420.2 0 
115.358 -373.39 0 
-2708.08 14.4711 0 
-31333.9 -56435.4 0 
31333.9 -56435.4 0 
2708.08 14.4711 0 
VECTORS velocity double
-303.206 311.985 0 
303.206 311.985 0 
-651.636 831.907 0 
651.636 831.907 0 
-398.575 299.764 0 
101.884 -823.981 0 
-101.884 -823.981 0 
398.575 299.764 0 
-396.334 -306.144 0 
-213.789 -313.532 0 
213.789 -313.532 0 
396.334 -306.144 0 

