# vtk DataFile Version 3.0
SiWiRVisFile
ASCII
DATASET UNSTRUCTURED_GRID
POINTS 12 DOUBLE
99.9 100.6 100 
100.1 100.6 100 
99.9 100.4 100 
100.1 100.4 100 
99.7 100 100 
99.9 100 100 
100.1 100 100 
100.3 100 100 
99.7 99.8 100 
99.9 99.8 100 
100.1 99.8 100 
100.3 99.8 100 
POINT_DATA 12
SCALARS mass double
LOOKUP_TABLE default
1
1
1
1
1
1
1
1
1
1
1
1
VECTORS force double
-2.95248e+06 2.95248e+06 0 
2.95248e+06 2.95248e+06 0 
-2.95248e+06 -2.95196e+06 0 
2.95248e+06 -2.95196e+06 0 
-2.95295e+06 2.95244e+06 0 
-469.229 2.97496e+06 0 
469.229 2.97496e+06 0 
2.95295e+06 2.95244e+06 0 
-2.95291e+06 -2.95251e+06 0 
-431.885 -2.9754e+06 0 
431.885 -2.9754e+06 0 
2.95291e+06 -2.95251e+06 0 
VECTORS velocity double
-147.624 147.624 0 
147.624 147.624 0 
-147.624 -147.598 0 
147.624 -147.598 0 
-147.648 147.622 0 
-0.0234615 148.748 0 
0.0234615 148.748 0 
147.648 147.622 0 
-147.646 -147.626 0 
-0.0215943 -148.77 0 
0.0215943 -148.77 0 
147.646 -147.626 0 

