# vtk DataFile Version 3.0
SiWiRVisFile
ASCII
DATASET UNSTRUCTURED_GRID
POINTS 12 DOUBLE
99.7787 100.721 100 
100.221 100.721 100 
99.7773 100.287 100 
100.223 100.287 100 
99.5601 100.121 100 
99.8316 100.115 100 
100.168 100.115 100 
100.44 100.121 100 
99.5602 99.6787 100 
99.8301 99.6777 100 
100.17 99.6777 100 
100.44 99.6787 100 
POINT_DATA 12
SCALARS mass double
LOOKUP_TABLE default
1
1
1
1
1
1
1
1
1
1
1
1
VECTORS force double
-95.9571 124.123 0 
95.9571 124.123 0 
-3.31023e+06 1.0663e+07 0 
3.31023e+06 1.0663e+07 0 
-95506.4 -29488.8 0 
3.40203e+06 -1.06334e+07 0 
-3.40203e+06 -1.06334e+07 0 
95506.4 -29488.8 0 
-59444.5 116.281 0 
56454 -353.906 0 
-56454 -353.906 0 
59444.5 116.281 0 
VECTORS velocity double
-306.193 306.2 0 
306.193 306.2 0 
-484.979 301.999 0 
484.979 301.999 0 
-391.674 303.569 0 
-37.2974 -296.686 0 
37.2974 -296.686 0 
391.674 303.569 0 
-388.873 -306.166 0 
-218.713 -308.918 0 
218.713 -308.918 0 
388.873 -306.166 0 

