# vtk DataFile Version 3.0
SiWiRVisFile
ASCII
DATASET UNSTRUCTURED_GRID
POINTS 12 DOUBLE
99.8093 100.691 100 
100.191 100.691 100 
99.8093 100.31 100 
100.191 100.31 100 
99.5988 100.091 100 
99.8523 100.091 100 
100.148 100.091 100 
100.401 100.091 100 
99.5988 99.7093 100 
99.8523 99.7086 100 
100.148 99.7086 100 
100.401 99.7093 100 
POINT_DATA 12
SCALARS mass double
LOOKUP_TABLE default
1
1
1
1
1
1
1
1
1
1
1
1
VECTORS force double
-668.962 681.849 0 
668.962 681.849 0 
-130077 709977 0 
130077 709977 0 
-142985 -8676.72 0 
253395 -700551 0 
-253395 -700551 0 
142985 -8676.72 0 
-134564 -319.204 0 
116181 -1112.65 0 
-116181 -1112.65 0 
134564 -319.204 0 
VECTORS velocity double
-306.155 306.16 0 
306.155 306.16 0 
-312.963 -266.649 0 
312.963 -266.649 0 
-379.749 305.478 0 
-220.069 270.011 0 
220.069 270.011 0 
379.749 305.478 0 
-379.172 -306.156 0 
-227.345 -308.844 0 
227.345 -308.844 0 
379.172 -306.156 0 

