# vtk DataFile Version 3.0
SiWiRVisFile
ASCII
DATASET UNSTRUCTURED_GRID
POINTS 12 DOUBLE
99.8399 100.66 100 
100.16 100.66 100 
99.8399 100.34 100 
100.16 100.34 100 
99.636 100.06 100 
99.8756 100.061 100 
100.124 100.061 100 
100.364 100.06 100 
99.636 99.7399 100 
99.8756 99.7394 100 
100.124 99.7394 100 
100.364 99.7399 100 
POINT_DATA 12
SCALARS mass double
LOOKUP_TABLE default
1
1
1
1
1
1
1
1
1
1
1
1
VECTORS force double
-6514.3 6528.55 0 
6514.3 6528.55 0 
-9723.78 29430.8 0 
9723.78 29430.8 0 
-282039 4337.31 0 
113237 -26807.3 0 
-113237 -26807.3 0 
282039 4337.31 0 
-280734 -6183.59 0 
109284 -7305.77 0 
-109284 -7305.77 0 
280734 -6183.59 0 
VECTORS velocity double
-305.796 305.8 0 
305.796 305.8 0 
-305.973 -303.62 0 
305.973 -303.62 0 
-358.498 305.695 0 
-238.4 306.379 0 
238.4 306.379 0 
358.498 305.695 0 
-358.407 -305.831 0 
-238.618 -308.423 0 
238.618 -308.423 0 
358.407 -305.831 0 

