# vtk DataFile Version 3.0
SiWiRVisFile
ASCII
DATASET UNSTRUCTURED_GRID
POINTS 12 DOUBLE
99.7175 100.783 100 
100.283 100.783 100 
99.6474 100.454 100 
100.353 100.454 100 
99.4806 100.181 100 
99.8581 99.9488 100 
100.142 99.9488 100 
100.519 100.181 100 
99.4816 99.6175 100 
99.7872 99.6159 100 
100.213 99.6159 100 
100.518 99.6175 100 
POINT_DATA 12
SCALARS mass double
LOOKUP_TABLE default
1
1
1
1
1
1
1
1
1
1
1
1
VECTORS force double
712.348 3360.04 0 
-712.348 3360.04 0 
2758.63 2327.51 0 
-2758.63 2327.51 0 
-3558.08 -5628.01 0 
-30193.8 2821.45 0 
30193.8 2821.45 0 
3558.08 -5628.01 0 
-11830.4 44.7148 0 
11031.3 -2925.71 0 
-11031.3 -2925.71 0 
11830.4 44.7148 0 
VECTORS velocity double
-306.158 306.436 0 
306.158 306.436 0 
-648.929 837.001 0 
648.929 837.001 0 
-398.325 300.215 0 
130.597 -828.354 0 
-130.597 -828.354 0 
398.325 300.215 0 
-395.053 -306.149 0 
-212.793 -309.15 0 
212.793 -309.15 0 
395.053 -306.149 0 

